% Model:              板.mph
% Version:            COMSOL 6.0.0.318
% Date:               Aug 12 2022, 11:15
% Dimension:          2
% Nodes:              1225
% Expressions:        1
% Description:        表面
% surf1x                  surf1y                   电流密度模
14.705882352941178        11.764705882352947       41.2147805755184
17.647058823529413        11.764705882352942       43.60238069406857
14.705882352941174        14.705882352941178       43.229461723676096
17.647058823529413        14.705882352941174       44.952163092266716
20.588235294117652        14.705882352941174       46.226040649822906
23.529411764705877        14.705882352941174       47.0380197275507
20.588235294117645        17.647058823529417       46.89891094285374
23.529411764705873        17.647058823529406       47.33836461751003
14.705882352941178        26.470588235294123       47.40892539684665
17.647058823529413        26.470588235294123       47.40310425885581
14.705882352941178        29.411764705882373       47.303967768845105
17.647058823529417        29.411764705882355       47.08711699208796
20.58823529411765         26.470588235294112       47.226188647111606
20.588235294117645        29.411764705882355       46.72730969184774
14.705882352941174        32.352941176470615       46.80233285336899
17.647058823529406        32.35294117647057        46.44510792836725
14.705882352941172        35.29411764705884        45.98557632015911
17.647058823529417        35.29411764705885        45.529259030979155
20.588235294117645        11.764705882352942       45.39938479186003
23.529411764705877        11.764705882352946       46.612139941260665
26.470588235294105        11.76470588235294        47.247234101939625
26.470588235294112        14.705882352941174       47.3800455528008
23.529411764705873        8.823529411764708        46.11760771134647
26.470588235294105        8.823529411764712        47.04214717742187
11.764705882352942        0                        29.95878064720945
14.705882352941174        0                        35.36359511411754
11.76470588235294         2.941176470588237        30.689419888966484
14.705882352941172        2.9411764705882373       35.84643552858754
11.76470588235294         5.882352941176473        32.67102232288939
14.705882352941172        5.882352941176473        37.18547987018959
11.76470588235294         8.823529411764712        35.3999397193531
14.705882352941172        8.82352941176471         39.08021157400014
11.76470588235294         11.764705882352942       38.40478537817956
20.588235294117645        8.823529411764707        44.500025491067376
17.647058823529413        5.882352941176469        40.901758630996305
17.647058823529413        8.823529411764712        42.16440863356266
29.411764705882348        11.76470588235294        47.358141889870566
29.411764705882348        14.705882352941174       47.27467009571557
32.35294117647057         11.76470588235294        47.015234966808165
32.35294117647058         14.705882352941174       46.78115690681402
35.29411764705883         11.764705882352946       46.29676571722178
35.29411764705883         14.705882352941174       45.961437150650056
29.411764705882344        8.82352941176471         47.3543137688137
32.35294117647057         8.82352941176471         47.152247663691426
35.294117647058826        8.823529411764712        46.5304697650266
26.470588235294105        5.882352941176468        46.835483137762886
29.411764705882344        5.88235294117647         47.31782905044297
32.35294117647057         5.88235294117647         47.22978869018924
35.294117647058826        5.882352941176471        46.681734361020524
29.411764705882348        0                        47.26942473010206
32.35294117647058         0                        47.26806346447792
29.411764705882344        2.941176470588237        47.281059432111746
32.35294117647059         2.9411764705882364       47.26166232464501
38.23529411764706         8.823529411764708        45.57153057641295
38.235294117647065        11.764705882352946       45.27757786992904
38.23529411764706         5.88235294117647         45.7722490683754
41.17647058823529         5.882352941176473        44.592277515223515
41.17647058823529         8.823529411764708        44.36401002903599
35.29411764705884         2.941176470588237        46.767102728970116
38.23529411764706         2.9411764705882364       45.88709099214279
41.1764705882353          2.9411764705882364       44.7256994249169
35.29411764705883         0                        46.79534252975208
38.235294117647065        0                        45.925467503109665
44.11764705882352         5.88235294117647         43.21654226657824
44.11764705882352         8.823529411764712        42.97757197997663
47.05882352941175         5.88235294117647         41.701099262905394
47.05882352941175         8.823529411764712        41.45900544130358
41.1764705882353          0                        44.769450467407026
50                        5.88235294117647         40.09830790522487
50                        8.82352941176471         39.85916889859505
52.941176470588246        0                        38.636996704045856
55.88235294117648         0                        36.95237494018655
52.94117647058824         2.9411764705882364       38.58850556657981
55.88235294117649         2.9411764705882364       36.908194816975005
50.000000000000014        0                        40.28804543156737
50.00000000000003         2.9411764705882364       40.24104530096259
8.82352941176471          2.9411764705882373       24.675854584020136
8.823529411764707         5.882352941176471        27.576761664408654
8.823529411764708         0                        23.578896200100516
76.47058823529414         0                        25.92261901293385
79.41176470588238         0                        24.53009171860669
76.47058823529416         2.941176470588237        25.89507636041752
79.41176470588238         2.941176470588237        24.504284656885684
82.35294117647061         0                        23.181448591882532
82.35294117647062         2.941176470588237        23.157279197502874
11.76470588235294         35.29411764705883        46.32590985562
11.764705882352938        38.23529411764707        45.29089383673791
14.705882352941178        38.235294117647086       44.89390356670715
11.76470588235294         32.35294117647061        47.03820365796362
8.82352941176471          32.35294117647061        47.185121434275324
8.82352941176471          35.29411764705885        46.561281522588146
8.82352941176471          38.235294117647086       45.586047945927056
8.82352941176471          41.17647058823531        44.37906362345128
11.764705882352946        41.176470588235304       44.05009145070235
8.823529411764708         44.11764705882354        42.975595028603536
11.764705882352946        44.11764705882356        42.632527195350995
17.647058823529413        17.64705882352942        46.09338456252593
14.705882352941172        17.647058823529413       44.954341712648954
14.705882352941172        23.52941176470589        47.07431833894891
17.64705882352942         23.52941176470589        47.35740225665148
20.588235294117645        23.52941176470589        47.432494194121446
14.705882352941172        20.588235294117656       46.24376157269929
17.647058823529406        20.588235294117652       46.90542054775351
20.58823529411764         20.58823529411765        47.30976042181294
11.764705882352942        14.705882352941172       41.21037194026775
11.76470588235294         17.647058823529413       43.60032972903838
11.764705882352938        20.588235294117652       45.41288278193983
8.823529411764707         17.64705882352942        42.186488311753465
8.823529411764707         20.588235294117656       44.53642816988588
11.764705882352942        23.529411764705895       46.644080411996036
11.764705882352946        29.411764705882355       47.394387884335615
8.82352941176471          29.411764705882355       47.39745436960429
11.764705882352938        26.47058823529413        47.28212674008737
8.82352941176471          26.47058823529412        47.08158750218171
8.82352941176471          23.52941176470589        46.15432534134399
0                         29.41176470588236        47.308711210585564
2.9411764705882355        29.411764705882355       47.31909116650736
0                         32.3529411764706         47.30036012278825
2.9411764705882364        32.35294117647059        47.29594980738513
5.882352941176468         23.52941176470588        45.70191068188686
5.88235294117647          26.470588235294116       46.87502310296817
5.88235294117647          29.411764705882355       47.355120401141214
5.882352941176469         32.3529411764706         47.26525867488183
2.9411764705882364        23.529411764705895       45.37311692117056
2.9411764705882364        26.47058823529412        46.71467644600722
0                         23.52941176470589        45.25489276887973
0                         26.470588235294123       46.65170343469837
5.882352941176468         17.647058823529413       40.920568912472774
5.882352941176467         20.588235294117652       43.757331046304465
2.9411764705882355        20.588235294117652       43.21745490764689
0                         20.588235294117656       43.028158292479304
5.882352941176469         0                        16.24793719004348
5.882352941176468         2.9411764705882364       18.042063836246022
8.823529411764707         8.823529411764712        31.399868718808882
8.823529411764708         14.705882352941174       39.10237353702813
8.823529411764707         11.764705882352942       35.429464406317486
5.882352941176468         14.70588235294118        37.211574225610754
5.882352941176468         5.882352941176473        22.370000421926164
5.882352941176468         8.823529411764712        27.566719173472258
5.882352941176469         11.764705882352946       32.69787056170554
2.9411764705882355        5.882352941176471        18.04025390380442
2.9411764705882355        8.823529411764712        24.647097750184603
0                         5.882352941176472        16.249024485017863
0                         8.823529411764712        23.53011670397428
0                         11.764705882352944       29.984881055835615
2.9411764705882355        11.764705882352942       30.720766365282046
0                         17.647058823529417       39.73341494978542
2.9411764705882355        17.64705882352942        40.043652221180125
2.9411764705882364        14.70588235294118        35.8887808197445
0                         14.70588235294118        35.408235384272224
2.941176470588236         0                        8.287022252528804
2.9411764705882355        2.9411764705882373       11.64478237994403
0                         2.9411764705882373       8.299216794966869
0                         0                        0
79.41176470588238         5.882352941176471        24.42716687325039
82.3529411764706          5.88235294117647         23.08531870577837
85.29411764705888         0                        21.87052041837113
85.29411764705887         2.941176470588237        21.848477621794668
85.29411764705887         5.882352941176468        21.781990872014553
0                         41.17647058823531        44.77954873159216
2.9411764705882355        41.176470588235304       44.73801271304002
0                         44.11764705882355        43.41076007403981
2.941176470588237         44.11764705882354        43.36157384505653
0                         47.05882352941178        41.88516179170615
2.9411764705882364        47.05882352941179        41.8369909926623
0                         50.000000000000014       40.27171663193511
2.941176470588237         50                       40.22206675403079
0                         52.941176470588246       38.60351263824684
2.941176470588237         52.94117647058824        38.55735366403497
0                         55.88235294117648        36.918251691932625
2.941176470588237         55.88235294117649        36.87404950852887
0                         82.35294117647061        23.16906918486767
2.9411764705882355        82.3529411764706         23.14490133226075
0                         85.29411764705884        21.86112331758
2.941176470588235         85.29411764705885        21.838692369606605
0                         79.41176470588236        24.515855706018485
2.941176470588234         79.41176470588235        24.49013164887896
2.9411764705882364        64.70588235294123        31.9159099698482
5.882352941176469         64.70588235294117        31.805840180796743
2.941176470588235         67.6470588235294         30.334400518705507
5.882352941176467         67.64705882352939        30.232703123174865
0                         64.70588235294122        31.95297424473675
0                         67.64705882352942        30.368281004560366
0                         76.47058823529414        25.906374503622438
2.9411764705882346        76.47058823529414        25.878557798885456
2.9411764705882346        70.5882352941177         28.800440059248857
5.882352941176467         70.58823529411765        28.705611778430868
2.9411764705882346        73.5294117647059         27.315538564192288
5.882352941176468         73.52941176470587        27.22735876936748
0                         73.52941176470591        27.34459196667151
0                         70.58823529411768        28.832219924439926
14.705882352941172        41.176470588235304       43.618532967502894
14.705882352941178        44.11764705882356        42.19096855164827
17.647058823529406        38.23529411764707        44.390976137713295
17.647058823529413        41.1764705882353         43.085724559444394
17.647058823529417        44.11764705882355        41.649487679597335
23.529411764705873        20.58823529411765        47.41913953899278
23.529411764705873        23.52941176470589        47.26604927563633
23.529411764705877        26.470588235294112       46.853351242117554
32.35294117647057         17.647058823529417       46.43588237561799
35.294117647058826        17.647058823529413       45.51940798724733
29.411764705882344        17.647058823529417       47.07070839990202
26.470588235294105        17.647058823529413       47.391798569987266
26.470588235294105        23.52941176470589        46.84882100448041
26.470588235294105        26.47058823529412        46.27874356601486
26.470588235294105        20.58823529411765        47.21188924801507
29.411764705882344        20.58823529411765        46.7090263033101
32.35294117647057         20.58823529411765        45.94992587657799
35.29411764705884         20.58823529411765        44.950972325761654
23.52941176470588         29.411764705882355       46.20239444346726
26.470588235294123        29.411764705882348       45.50854114476867
29.411764705882337        23.52941176470588        46.197456655978534
29.411764705882348        26.470588235294112       45.506331651504674
29.411764705882344        29.411764705882348       44.65130046778732
32.35294117647058         23.52941176470588        45.32840219086129
35.29411764705884         23.529411764705884       44.26487529148326
32.35294117647057         26.470588235294112       44.55413065532824
35.294117647058826        26.470588235294112       43.448506587163486
32.35294117647059         29.411764705882348       43.64799754495197
35.29411764705884         29.411764705882348       42.51974799308065
32.35294117647058         32.3529411764706         42.61613361661347
35.29411764705884         32.35294117647059        41.48088647544692
79.41176470588238         8.823529411764712        24.299403436153664
82.35294117647062         8.823529411764712        22.966343716912778
76.47058823529414         5.88235294117647         25.8124925431622
76.47058823529414         8.823529411764712        25.675319350410366
70.58823529411765         5.882352941176468        28.726673509839117
73.5294117647059          5.88235294117647         27.245507039054598
70.58823529411767         8.82352941176471         28.567826327442717
73.5294117647059          8.823529411764712        27.097836668594134
52.94117647058824         5.88235294117647         38.44688942197248
55.88235294117647         5.882352941176469        36.77398294730824
52.94117647058824         8.823529411764712        38.21474028877012
55.88235294117647         8.823529411764712        36.551200651555845
70.58823529411768         11.764705882352946       28.347649697086545
73.52941176470591         11.76470588235294        26.892978577840175
76.47058823529414         11.764705882352946       25.485096224272034
79.41176470588239         11.764705882352946       24.122154648455343
82.35294117647061         11.76470588235294        22.801269556256912
79.41176470588238         14.705882352941178       23.896962980320836
82.35294117647061         14.70588235294118        22.591577472680502
76.47058823529414         14.705882352941178       25.243404229563136
70.58823529411767         14.705882352941172       28.067996901241088
73.5294117647059          14.70588235294118        26.632828266278633
38.235294117647065        20.58823529411765        43.77352238418664
38.235294117647065        23.52941176470589        43.05300840316525
38.235294117647065        17.64705882352942        44.38554349983438
38.235294117647065        14.705882352941174       44.883947812404
41.17647058823527         20.588235294117652       42.45419695989301
41.1764705882353          23.52941176470589        41.72122590405885
44.11764705882352         20.588235294117652       41.02861558985559
44.11764705882352         23.52941176470588        40.30112950616093
41.17647058823529         17.647058823529417       43.08640128446497
41.17647058823529         14.705882352941174       43.61461232951608
41.17647058823529         11.76470588235294        44.04067294398122
44.11764705882352         17.647058823529413       41.6640786554961
47.05882352941175         17.647058823529413       40.15404731997281
47.05882352941175         20.58823529411765        39.53059326300426
47.058823529411754        11.764705882352946       41.120387716630745
50                        11.76470588235294        39.526721532781885
44.11764705882352         11.764705882352942       42.639697925451934
44.117647058823536        14.705882352941174       42.20041487753411
47.058823529411754        14.705882352941174       40.684613216459134
58.82352941176472         14.705882352941172       34.23438498075032
61.76470588235295         14.705882352941178       32.638132938613055
58.82352941176472         17.647058823529413       33.79296855588794
61.764705882352956        17.647058823529417       32.22377413628461
58.82352941176471         8.82352941176471         34.891702159892844
61.76470588235295         8.82352941176471         33.25403717442079
58.82352941176471         11.76470588235294        34.6022905468656
61.76470588235295         11.76470588235294        32.98307602210084
55.88235294117647         11.76470588235294        36.24481468302883
52.94117647058824         11.76470588235294        37.893267805398914
55.88235294117647         14.705882352941172       35.85460476361904
55.88235294117647         17.647058823529417       35.38574443817491
67.64705882352942         5.882352941176469        30.256191222035323
67.6470588235294          8.82352941176471         30.0856840238871
64.7058823529412          5.882352941176469        31.833462265764698
64.70588235294123         8.823529411764708        31.650219740508923
67.6470588235294          11.76470588235294        29.84937544247275
67.6470588235294          14.705882352941172       29.548969178955822
64.7058823529412          11.76470588235294        31.396513384903315
64.70588235294122         14.705882352941178       31.074002721906073
11.764705882352946        47.05882352941178        41.10055198279012
14.70588235294118         47.05882352941176        40.66347671101883
17.647058823529417        47.05882352941178        40.13100158293715
11.76470588235294         50.00000000000003        39.49964683082002
14.705882352941174        50.00000000000001        39.07398793857039
17.64705882352942         50                       38.55818015887313
11.76470588235294         52.94117647058826        37.86317607581533
14.705882352941174        52.941176470588246       37.45380341747779
17.647058823529413        52.94117647058824        36.96078907954437
20.588235294117652        49.99999999999999        37.95755318088881
20.58823529411765         52.94117647058824        36.38766219856506
5.882352941176468         44.117647058823536       43.216808325093524
5.882352941176469         47.05882352941176        41.68988002223304
5.882352941176469         52.94117647058823        38.41741795139008
5.882352941176469         55.88235294117647        36.74054756586823
8.82352941176471          52.94117647058824        38.18523963846146
8.82352941176471          55.88235294117649        36.51969247837502
11.76470588235294         55.88235294117649        36.21337262495424
8.82352941176471          47.05882352941178        41.44390246208914
5.882352941176469         50                       40.0754154939391
8.823529411764707         50.00000000000003        39.83444183819186
5.882352941176469         58.82352941176472        35.06813729561954
8.82352941176471          58.823529411764696       34.86116862772786
2.941176470588237         58.82352941176472        35.19482425455732
0                         58.82352941176471        35.23824675041713
2.9411764705882364        61.764705882352956       33.53597974714399
5.882352941176469         61.764705882352935       33.419759349905874
0                         61.76470588235295        33.574376422050705
17.64705882352942         55.88235294117647        35.35840067058912
20.588235294117652        55.88235294117645        34.816037318016015
14.705882352941174        55.88235294117648        35.82514476097068
11.764705882352946        58.823529411764696       34.57339947171704
8.823529411764707         61.764705882352956       33.22572794837272
11.76470588235294         61.764705882352935       32.956081688833606
8.823529411764708         64.70588235294123        31.624200271769627
11.76470588235294         64.7058823529412         31.37188628588312
8.823529411764703         67.64705882352942        30.063479703115068
14.70588235294118         58.823529411764696       34.208120991111386
20.588235294117645        47.05882352941178        39.5085060719111
23.529411764705873        47.05882352941178        38.79886593530707
23.529411764705877        50                       37.27634590473215
20.58823529411764         44.11764705882354        41.01323350413141
20.58823529411765         32.3529411764706         45.95804784587571
20.58823529411765         35.294117647058826       44.961233922769175
20.588235294117652        41.17647058823531        42.45110130322868
20.58823529411765         38.23529411764707        43.77905901716885
23.529411764705877        32.35294117647059        45.32672600991732
23.529411764705873        35.29411764705883        44.26759176362561
26.470588235294112        32.35294117647058        44.55433289260598
29.411764705882348        32.3529411764706         43.646579507861205
26.470588235294105        35.29411764705883        43.45010893390929
29.411764705882344        35.29411764705884        42.5165155289264
32.35294117647059         35.294117647058826       41.478477404278365
11.764705882352937        67.6470588235294         29.82828790451303
8.823529411764703         70.58823529411768        28.548267933007835
5.882352941176468         82.35294117647061        23.07294310174951
5.882352941176468         85.29411764705881        21.77151015209888
11.764705882352938        70.58823529411765        28.32928824583498
8.823529411764703         82.3529411764706         22.953989732228674
8.823529411764708         85.29411764705885        21.660255679255407
5.882352941176468         88.23529411764704        20.500317042071003
8.823529411764707         88.23529411764704        20.39593443640087
11.764705882352938        85.29411764705884        21.505904470255125
11.764705882352938        88.23529411764704        20.250803462804438
11.764705882352937        82.3529411764706         22.788963075565004
5.882352941176468         76.47058823529414        25.795979637545297
5.882352941176468         79.41176470588235        24.41307495532061
8.823529411764707         73.52941176470588        27.080242007570806
11.764705882352938        73.5294117647059         26.87619134051783
8.823529411764701         76.47058823529414        25.659527936773596
11.764705882352938        76.47058823529414        25.469877201939397
8.823529411764703         79.41176470588235        24.285560772194803
11.764705882352937        79.41176470588238        24.108826563511823
17.647058823529413        58.823529411764696       33.768549097913564
20.58823529411765         58.823529411764696       33.25813493957899
23.529411764705877        52.94117647058824        35.73984249919412
23.529411764705877        55.88235294117647        34.203870995498804
23.529411764705877        58.823529411764696       32.68209299972882
20.588235294117652        61.76470588235293        31.721769646313646
23.529411764705877        61.764705882352935       31.182236472519456
17.647058823529413        61.764705882352935       32.2003991057866
14.705882352941174        61.764705882352956       32.6133170175559
14.705882352941174        64.70588235294123        31.051096916325392
17.647058823529413        64.7058823529412         30.665584116526475
20.58823529411765         64.70588235294123        30.21848361141696
14.705882352941169        67.64705882352943        29.529661472987648
14.705882352941169        70.58823529411768        28.050823112670926
23.529411764705873        5.88235294117647         45.66236106772501
20.588235294117645        5.882352941176469        43.70224709120862
26.470588235294105        2.941176470588237        46.67809486962612
26.470588235294112        0                        46.62036816758066
17.647058823529413        0                        39.69726791603072
17.647058823529413        2.941176470588237        40.01642966756407
20.58823529411765         0                        42.9423295030751
20.588235294117645        2.941176470588237        43.14221438361426
23.52941176470588         0                        45.20655541978179
23.529411764705873        2.941176470588237        45.329223061993666
58.82352941176471         5.882352941176469        35.100476450430776
61.76470588235295         5.88235294117647         33.44934318705235
58.82352941176472         0                        35.268064856567456
58.82352941176471         2.9411764705882364       35.22634751072713
73.5294117647059          2.9411764705882364       27.33433751865545
73.52941176470591         0                        27.363914325733894
70.58823529411767         2.9411764705882364       28.82273857971367
61.76470588235296         2.9411764705882364       33.567652470729776
64.70588235294123         2.941176470588237        31.944441048821034
67.6470588235294          2.9411764705882364       30.35911927006455
61.76470588235295         0                        33.60749328041108
64.70588235294122         0                        31.981746840097784
67.64705882352942         0                        30.393562659757553
70.58823529411768         0                        28.85494838475494
44.11764705882352         0                        43.404826569627716
44.117647058823536        2.9411764705882364       43.357857866175976
47.05882352941176         0                        41.89140631190078
47.05882352941175         2.9411764705882364       41.84434846145783
91.17647058823533         0                        19.340176564623203
94.11764705882356         0                        18.096446952099292
91.17647058823535         2.941176470588237        19.320329412108077
94.11764705882356         2.941176470588237        18.075133882319367
91.17647058823533         5.882352941176469        19.260461392510237
94.11764705882358         5.882352941176469        18.01519278097117
50                        14.705882352941172       39.10040505589108
50                        17.647058823529413       38.58540033232373
52.94117647058824         14.705882352941172       37.48310546002151
52.94117647058824         17.647058823529417       36.990000574541384
52.94117647058824         20.58823529411765        36.41481181812801
55.88235294117647         20.58823529411765        34.840675726581665
50                        20.58823529411765        37.98353010933645
52.94117647058824         23.529411764705884       35.76522016741435
55.88235294117647         23.529411764705884       34.22644932174018
50.00000000000003         23.529411764705884       37.301136573968925
47.05882352941175         23.52941176470588        38.821744990608025
52.94117647058824         26.470588235294105       35.04376729539318
55.88235294117647         26.470588235294105       33.545692319643244
58.82352941176471         23.52941176470589        32.701577512742354
58.82352941176471         26.470588235294105       32.06245928276088
58.82352941176471         20.58823529411765        33.27972520357782
61.76470588235295         20.588235294117645       31.74298451427824
88.23529411764709         0                        20.59405630793959